
  ___ ___ ___ _ _ _  
 |   |   |_  | | | | 
 | | | | | . | | | | 
 |__ |  _|___|_____|  19.8.1
 |___|_|             

User:   efefer@mariya0704
Date:   Thu Nov 21 00:52:28 2019
Arch:   x86_64
Pid:    20868
Python: 3.7.3
gpaw:   /home/efefer/miniconda3/lib/python3.7/site-packages/gpaw
_gpaw:  /home/efefer/miniconda3/bin/gpaw-python
ase:    /home/efefer/miniconda3/lib/python3.7/site-packages/ase-3.18.0-py3.7.egg/ase (version 3.18.0)
numpy:  /home/efefer/miniconda3/lib/python3.7/site-packages/numpy (version 1.15.4)
scipy:  /home/efefer/miniconda3/lib/python3.7/site-packages/scipy (version 1.2.1)
libxc:  4.3.4
units:  Angstrom and eV
cores:  1

Input parameters:
  kpts: [8 8 8]
  mode: {ecut: 200.0,
         gammacentered: False,
         name: pw}
  occupations: {name: fermi-dirac,
                width: 0.01}
  random: True
  xc: PBE

System changes: positions, numbers, cell, pbc, initial_charges, initial_magmoms 

Initialize ...

Si-setup:
  name: Silicon
  id: ee77bee481871cc2cb65ac61239ccafa
  Z: 14
  valence: 4
  core: 10
  charge: 0.0
  file: /home/efefer/WORKS/GPAW/gpaw-setups-0.9.20000/Si.PBE.gz
  compensation charges: gauss, rc=0.33, lmax=2
  cutoffs: 1.86(filt), 2.06(core),
  valence states:
                energy  radius
    3s(2.00)   -10.812   1.058
    3p(2.00)    -4.081   1.058
    *s          16.399   1.058
    *p          23.130   1.058
    *d           0.000   1.058

  Using partial waves for Si as LCAO basis

Reference energy: -15772.688500

Spin-paired calculation

Occupation numbers:
  Fermi-Dirac: width=0.0100 eV

Convergence criteria:
  Maximum total energy change: 0.0005 eV / electron
  Maximum integral of absolute density change: 0.0001 electrons
  Maximum integral of absolute eigenstate change: 4e-08 eV^2
  Maximum number of iterations: 333

Symmetries present (total): 24

  ( 1  0  0)  ( 1  0  0)  ( 1  0 -1)  ( 1  0 -1)  ( 1 -1  0)  ( 1 -1  0)
  ( 0  1  0)  ( 0  0  1)  ( 0  1 -1)  ( 0  0 -1)  ( 0 -1  1)  ( 0 -1  0)
  ( 0  0  1)  ( 0  1  0)  ( 0  0 -1)  ( 0  1 -1)  ( 0 -1  0)  ( 0 -1  1)

  ( 0  1  0)  ( 0  1  0)  ( 0  1 -1)  ( 0  1 -1)  ( 0  0  1)  ( 0  0  1)
  ( 1  0  0)  ( 0  0  1)  ( 1  0 -1)  ( 0  0 -1)  ( 1  0  0)  ( 0  1  0)
  ( 0  0  1)  ( 1  0  0)  ( 0  0 -1)  ( 1  0 -1)  ( 0  1  0)  ( 1  0  0)

  ( 0  0 -1)  ( 0  0 -1)  ( 0 -1  1)  ( 0 -1  1)  ( 0 -1  0)  ( 0 -1  0)
  ( 1  0 -1)  ( 0  1 -1)  ( 1 -1  0)  ( 0 -1  0)  ( 1 -1  0)  ( 0 -1  1)
  ( 0  1 -1)  ( 1  0 -1)  ( 0 -1  0)  ( 1 -1  0)  ( 0 -1  1)  ( 1 -1  0)

  (-1  1  0)  (-1  1  0)  (-1  0  1)  (-1  0  1)  (-1  0  0)  (-1  0  0)
  (-1  0  1)  (-1  0  0)  (-1  1  0)  (-1  0  0)  (-1  1  0)  (-1  0  1)
  (-1  0  0)  (-1  0  1)  (-1  0  0)  (-1  1  0)  (-1  0  1)  (-1  1  0)
Note: your k-points are not as symmetric as your crystal!

512 k-points: 8 x 8 x 8 Monkhorst-Pack grid
60 k-points in the irreducible part of the Brillouin zone
       k-points in crystal coordinates                weights
   0:     0.06250000    0.06250000   -0.06250000          6/512
   1:     0.06250000    0.06250000    0.06250000          2/512
   2:     0.18750000   -0.06250000   -0.06250000          6/512
   3:     0.18750000    0.06250000   -0.18750000         12/512
   4:     0.18750000    0.06250000   -0.06250000         12/512
   5:     0.18750000    0.06250000    0.06250000          6/512
   6:     0.18750000    0.18750000   -0.18750000          6/512
   7:     0.18750000    0.18750000   -0.06250000          6/512
   8:     0.18750000    0.18750000    0.06250000          6/512
   9:     0.18750000    0.18750000    0.18750000          2/512
          ...
  59:     0.43750000    0.43750000    0.43750000          2/512

Wave functions: Plane wave expansion
  Cutoff energy: 200.000 eV
  Number of coefficients (min, max): 251, 271
  Pulay-stress correction: 0.000000 eV/Ang^3 (de/decut=0.000000)
  Using Numpy's FFT
  ScaLapack parameters: grid=1x1, blocksize=None
  Wavefunction extrapolation:
    Improved wavefunction reuse through dual PAW basis 

Eigensolver
   Davidson(niter=2, smin=None, normalize=True) 

Densities:
  Coarse grid: 14*14*14 grid
  Fine grid: 28*28*28 grid
  Total Charge: 0.000000 

Density mixing:
  Method: separate
  Backend: pulay
  Linear mixing parameter: 0.05
  Mixing with 5 old densities
  Damping of long wave oscillations: 50 

Hamiltonian:
  XC and Coulomb potentials evaluated on a 28*28*28 grid
  Using the PBE Exchange-Correlation functional
 

XC parameters: PBE with 2 nearest neighbor stencil

Memory estimate:
  Process memory now: 86.43 MiB
  Calculator: 5.63 MiB
    Density: 1.03 MiB
      Arrays: 0.54 MiB
      Localized functions: 0.27 MiB
      Mixer: 0.21 MiB
    Hamiltonian: 0.36 MiB
      Arrays: 0.36 MiB
      XC: 0.00 MiB
      Poisson: 0.00 MiB
      vbar: 0.01 MiB
    Wavefunctions: 4.24 MiB
      Arrays psit_nG: 1.98 MiB
      Eigensolver: 0.06 MiB
      Projections: 0.19 MiB
      Projectors: 1.65 MiB
      PW-descriptor: 0.35 MiB

Total number of cores used: 1

Number of atoms: 2
Number of atomic orbitals: 8
Number of bands in calculation: 8
Bands to converge: occupied states only
Number of valence electrons: 8

... initialized

Initializing position-dependent things.

Density initialized from atomic densities
Creating initial wave functions:
  8 bands from LCAO basis set

                    
                    
                    
                    
           Si       
                    
       Si           
                    
                    
                    
                    

Positions:
   0 Si     0.000000    0.000000    0.000000    ( 0.0000,  0.0000,  0.0000)
   1 Si     1.357500    1.357500    1.357500    ( 0.0000,  0.0000,  0.0000)

Unit cell:
           periodic     x           y           z      points  spacing
  1. axis:    yes    0.000000    2.715000    2.715000    14     0.2239
  2. axis:    yes    2.715000    0.000000    2.715000    14     0.2239
  3. axis:    yes    2.715000    2.715000    0.000000    14     0.2239

  Lengths:   3.839590   3.839590   3.839590
  Angles:   60.000000  60.000000  60.000000

Effective grid spacing dv^(1/3) = 0.2443

                     log10-error:    total        iterations:
           time      wfs    density  energy       fermi  poisson
iter:   1  00:52:29  +1.02   +inf   -10.865639    0             
iter:   2  00:52:30  -1.97  -0.80   -10.866460    0             
iter:   3  00:52:31  -1.07  -0.81   -11.214850    5             
iter:   4  00:52:31  -2.03  -0.61   -10.827973    1             
iter:   5  00:52:32  -3.00  -1.21   -10.805922    0             
iter:   6  00:52:32  -2.69  -1.36   -10.781421    8             
iter:   7  00:52:33  -4.32  -2.48   -10.781305    0             
iter:   8  00:52:33  -5.40  -2.93   -10.781305    0             
iter:   9  00:52:34  -5.24  -2.93   -10.781445    0             
iter:  10  00:52:35  -5.94  -2.48   -10.781352    0             
iter:  11  00:52:35  -5.89  -2.70   -10.781302    0             
iter:  12  00:52:36  -6.00  -3.02   -10.781296    0             
iter:  13  00:52:36  -7.38  -4.60   -10.781296    0             
iter:  14  00:52:37  -8.20  -4.56   -10.781296    0             

Converged after 14 iterations.

Dipole moment: (-2.923916, -2.923916, -2.923916) |e|*Ang

Energy contributions relative to reference atoms: (reference = -15772.688500)

Kinetic:        +15.687421
Potential:      -13.753321
External:        +0.000000
XC:             -12.665357
Entropy (-ST):   -0.000000
Local:           -0.050040
--------------------------
Free energy:    -10.781296
Extrapolated:   -10.781296

Fermi level: 5.83663

Showing only first 2 kpts
 Kpt  Band  Eigenvalues  Occupancy
  0     2      4.79614    0.02344
  0     3      4.96447    0.02344
  0     4      7.71351    0.00000
  0     5      8.33100    0.00000

  1     2      5.23213    0.00781
  1     3      5.23213    0.00781
  1     4      7.94126    0.00000
  1     5      8.00075    0.00000


Gap: 0.814 eV
Transition (v -> c):
  (s=0, k=1, n=3, [0.06, 0.06, 0.06]) -> (s=0, k=55, n=4, [0.44, 0.44, -0.06])
Writing to Si_gs.gpw (mode='')

Timing:                              incl.     excl.
-----------------------------------------------------------
Hamiltonian:                         0.082     0.000   0.0% |
 Atomic:                             0.069     0.000   0.0% |
  XC Correction:                     0.069     0.069   0.3% |
 Calculate atomic Hamiltonians:      0.001     0.001   0.0% |
 Communicate:                        0.000     0.000   0.0% |
 Initialize Hamiltonian:             0.000     0.000   0.0% |
 Poisson:                            0.000     0.000   0.0% |
 XC 3D grid:                         0.012     0.012   0.0% |
LCAO initialization:                 0.721     0.011   0.0% |
 LCAO eigensolver:                   0.094     0.001   0.0% |
  Calculate projections:             0.001     0.001   0.0% |
  DenseAtomicCorrection:             0.004     0.004   0.0% |
  Distribute overlap matrix:         0.001     0.001   0.0% |
  Orbital Layouts:                   0.004     0.004   0.0% |
  Potential matrix:                  0.020     0.020   0.1% |
  Sum over cells:                    0.063     0.063   0.2% |
 LCAO to grid:                       0.443     0.443   1.7% ||
 Set positions (LCAO WFS):           0.174     0.027   0.1% |
  Basic WFS set positions:           0.001     0.001   0.0% |
  Basis functions set positions:     0.000     0.000   0.0% |
  P tci:                             0.055     0.055   0.2% |
  ST tci:                            0.081     0.081   0.3% |
  mktci:                             0.010     0.010   0.0% |
PWDescriptor:                        0.005     0.005   0.0% |
SCF-cycle:                           8.159     0.049   0.2% |
 Davidson:                           6.537     1.662   6.3% |--|
  Apply H:                           0.674     0.628   2.4% ||
   HMM T:                            0.046     0.046   0.2% |
  Subspace diag:                     1.113     0.037   0.1% |
   calc_h_matrix:                    0.837     0.158   0.6% |
    Apply H:                         0.679     0.632   2.4% ||
     HMM T:                          0.047     0.047   0.2% |
   diagonalize:                      0.073     0.073   0.3% |
   rotate_psi:                       0.166     0.166   0.6% |
  calc. matrices:                    2.376     1.030   3.9% |-|
   Apply H:                          1.346     1.254   4.7% |-|
    HMM T:                           0.093     0.093   0.3% |
  diagonalize:                       0.397     0.397   1.5% ||
  rotate_psi:                        0.315     0.315   1.2% |
 Density:                            0.430     0.000   0.0% |
  Atomic density matrices:           0.023     0.023   0.1% |
  Mix:                               0.027     0.027   0.1% |
  Multipole moments:                 0.001     0.001   0.0% |
  Pseudo density:                    0.379     0.341   1.3% ||
   Symmetrize density:               0.038     0.038   0.1% |
 Hamiltonian:                        1.103     0.005   0.0% |
  Atomic:                            0.935     0.005   0.0% |
   XC Correction:                    0.930     0.930   3.5% ||
  Calculate atomic Hamiltonians:     0.007     0.007   0.0% |
  Communicate:                       0.000     0.000   0.0% |
  Poisson:                           0.001     0.001   0.0% |
  XC 3D grid:                        0.154     0.154   0.6% |
 Orthonormalize:                     0.040     0.003   0.0% |
  calc_s_matrix:                     0.007     0.007   0.0% |
  inverse-cholesky:                  0.005     0.005   0.0% |
  projections:                       0.020     0.020   0.1% |
  rotate_psi_s:                      0.006     0.006   0.0% |
Set symmetry:                        0.025     0.025   0.1% |
Other:                              17.546    17.546  66.1% |-------------------------|
-----------------------------------------------------------
Total:                                        26.538 100.0%

Memory usage: 176.57 MiB
Date: Thu Nov 21 00:52:54 2019
